/*--------------------------------*- C++ -*----------------------------------*\
| =========                 |                                                 |
| \\      /  F ield         | OpenFOAM: The Open Source CFD Toolbox           |
|  \\    /   O peration     | Version:  1.4.1                                 |
|   \\  /    A nd           | Web:      http://www.openfoam.org               |
|    \\/     M anipulation  |                                                 |
\*---------------------------------------------------------------------------*/

FoamFile
{
    version 2.0;
    format binary;

    root "/wrk6/mauvinen/wrkOpenFOAM/caseStorage";
    case "tubePumpWF";
    instance "0";
    local "";

    class volScalarField;
    object k;
}

// * * * * * * * * * * * * * * * * * * * * * * * * * * * * * * * * * * * * * //

dimensions      [0 2 -2 0 0 0 0];

internalField   uniform 0.06212;

boundaryField
{
    impellerWall
    {
        type            zeroGradient;
    }
    inletDuct
    {
        type            zeroGradient;
    }
    inlet
    {
        type            fixedValue;
        value           uniform 0.06212;
    }
    impellerRim
    {
        type            zeroGradient;
    }
    voluteWall
    {
        type            zeroGradient;
    }
    outletDuct
    {
        type            zeroGradient;
    }
    outlet
    {
        type            zeroGradient;
    }

   insideGGI
  {
         type        ggi;
         value       uniform  0.06212;
  }
  outsideGGI
  {
         type        ggi;
         value       uniform 0.06212;
  }
}


// ************************************************************************* //
